
                                 *****************
                                 * O   R   C   A *
                                 *****************

           --- An Ab Initio, DFT and Semiempirical electronic structure package ---

                  #######################################################
                  #                        -***-                        #
                  #          Department of theory and spectroscopy      #
                  #               Directorship: Frank Neese             #
                  #        Max Planck Institute fuer Kohlenforschung    #
                  #                Kaiser Wilhelm Platz 1               #
                  #                 D-45470 Muelheim/Ruhr               #
                  #                      Germany                        #
                  #                                                     #
                  #                  All rights reserved                #
                  #                        -***-                        #
                  #######################################################


                         Program Version 4.2.0 -  RELEASE  -


 With contributions from (in alphabetic order):
   Daniel Aravena         : Magnetic Suceptibility
   Michael Atanasov       : Ab Initio Ligand Field Theory (pilot matlab implementation)
   Alexander A. Auer      : GIAO ZORA, VPT2
   Ute Becker             : Parallelization
   Giovanni Bistoni       : ED, misc. LED, open-shell LED, HFLED
   Martin Brehm           : Molecular dynamics
   Dmytro Bykov           : SCF Hessian
   Vijay G. Chilkuri      : MRCI spin determinant printing, contributions to CSF-ICE
   Dipayan Datta          : RHF DLPNO-CCSD density
   Achintya Kumar Dutta   : EOM-CC, STEOM-CC
   Dmitry Ganyushin       : Spin-Orbit,Spin-Spin,Magnetic field MRCI
   Miquel Garcia          : C-PCM Hessian, Gaussian charge scheme
   Yang Guo               : DLPNO-NEVPT2, CIM, IAO-localization
   Andreas Hansen         : Spin unrestricted coupled pair/coupled cluster methods
   Benjamin Helmich-Paris : CASSCF linear response (MC-RPA)
   Lee Huntington         : MR-EOM, pCC
   Robert Izsak           : Overlap fitted RIJCOSX, COSX-SCS-MP3, EOM
   Christian Kollmar      : KDIIS, OOCD, Brueckner-CCSD(T), CCSD density
   Simone Kossmann        : Meta GGA functionals, TD-DFT gradient, OOMP2, MP2 Hessian
   Martin Krupicka        : AUTO-CI
   Lucas Lang             : DCDCAS
   Dagmar Lenk            : GEPOL surface, SMD
   Dimitrios Liakos       : Extrapolation schemes; Compound Job, initial MDCI parallelization
   Dimitrios Manganas     : Further ROCIS development; embedding schemes
   Dimitrios Pantazis     : SARC Basis sets
   Taras Petrenko         : DFT Hessian,TD-DFT gradient, ASA, ECA, R-Raman, ABS, FL, XAS/XES, NRVS
   Peter Pinski           : DLPNO-MP2, DLPNO-MP2 Gradient
   Christoph Reimann      : Effective Core Potentials
   Marius Retegan         : Local ZFS, SOC
   Christoph Riplinger    : Optimizer, TS searches, QM/MM, DLPNO-CCSD(T), (RO)-DLPNO pert. Triples
   Tobias Risthaus        : Range-separated hybrids, TD-DFT gradient, RPA, STAB
   Michael Roemelt        : Original ROCIS implementation
   Masaaki Saitow         : Open-shell DLPNO-CCSD energy and density
   Barbara Sandhoefer     : DKH picture change effects
   Avijit Sen             : IP-ROCIS
   Kantharuban Sivalingam : CASSCF convergence, NEVPT2, FIC-MRCI
   Bernardo de Souza      : ESD, SOC TD-DFT
   Georgi Stoychev        : AutoAux, RI-MP2 NMR
   Willem Van den Heuvel  : Paramagnetic NMR
   Boris Wezisla          : Elementary symmetry handling
   Frank Wennmohs         : Technical directorship


 We gratefully acknowledge several colleagues who have allowed us to
 interface, adapt or use parts of their codes:
   Stefan Grimme, W. Hujo, H. Kruse,             : VdW corrections, initial TS optimization,
                  C. Bannwarth                     DFT functionals, gCP, sTDA/sTD-DF
   Ed Valeev, F. Pavosevic, A. Kumar             : LibInt (2-el integral package), F12 methods
   Garnet Chan, S. Sharma, J. Yang, R. Olivares  : DMRG
   Ulf Ekstrom                                   : XCFun DFT Library
   Mihaly Kallay                                 : mrcc  (arbitrary order and MRCC methods)
   Andreas Klamt, Michael Diedenhofen            : otool_cosmo (COSMO solvation model)
   Jiri Pittner, Ondrej Demel                    : Mk-CCSD
   Frank Weinhold                                : gennbo (NPA and NBO analysis)
   Christopher J. Cramer and Donald G. Truhlar   : smd solvation model
   Lars Goerigk                                  : TD-DFT with DH, B97 family of functionals
   V. Asgeirsson, H. Jonsson                     : NEB implementation
   FAccTs GmbH                                   : IRC, NEB, NEB-TS, Multilevel, MM, QM/MM, CI optimization
   S Lehtola, MJT Oliveira, MAL Marques          : LibXC Library


 Your calculation uses the libint2 library for the computation of 2-el integrals
 For citations please refer to: http://libint.valeyev.net

 Your ORCA version has been built with support for libXC version: 4.2.3
 For citations please refer to: https://tddft.org/programs/libxc/

 This ORCA versions uses:
   CBLAS   interface :  Fast vector & matrix operations
   LAPACKE interface :  Fast linear algebra routines
   SCALAPACK package :  Parallel linear algebra routines


----- Orbital basis set information -----
Your calculation utilizes the basis: 6-31G(d)
   H-He, Li-Ne : W. J. Hehre, R. Ditchfield and J.A. Pople, J. Chem. Phys. 56, 2257 (1972).
                 Note: He and Ne are unpublished basis sets taken from the Gaussian program.
                 Note: Li and B from J. D. Dill and J. A. Pople, J. Chem. Phys. 62, 2921 (1975).
   Na - Ar     : M. M. Francl, W. J. Pietro, W. J. Hehre, J. S. Binkley, M. S. Gordon, 
                 D. J. DeFrees and J. A. Pople, J. Chem. Phys. 77, 3654 (1982).
   K - Zn      : V. A. Rassolov, J. A. Pople, M. A. Ratner, and T. L. Windus, J. Chem. Phys. 109, 1223 (1998).

================================================================================
                                        WARNINGS
                       Please study these warnings very carefully!
================================================================================


WARNING: Geometry Optimization
  ===> : Switching off AutoStart
         For restart on a previous wavefunction, please use MOREAD

INFO   : the flag for use of LIBINT has been found!

================================================================================
                                       INPUT FILE
================================================================================
NAME = pirazinamida_opt_b3lyp_6-31g_d.inp
|  1> ! B3LYP OPT 6-31G(d) Grid4 TightSCF
|  2> %output
|  3>  Print [ P_Hirshfeld ] 1  # Hirshfeld Charge Population
|  4>  Print [ P_Mayer ] 1      # Mayer Bond Orders
|  5> end
|  6> * xyz 0 1
|  7> N -0.230558 0.966322 0.27992
|  8> C 0.272374 -0.251908 -0.0799001
|  9> C -0.536104 -1.34713 -0.344072
| 10> N -1.89041 -1.28163 -0.262709
| 11> C -2.39095 -0.0756708 0.0936121
| 12> C -1.581 1.01956 0.358091
| 13> C 1.75149 -0.37801 -0.185895
| 14> N 2.46099 0.760675 0.0863138
| 15> O 2.30208 -1.42633 -0.495719
| 16> H -0.121963 -2.30846 -0.629175
| 17> H -3.47155 -0.0117289 0.161626
| 18> H -2.00481 1.97669 0.642292
| 19> H 3.46909 0.746619 0.0335034
| 20> H 1.97131 1.61101 0.342112
| 21> **                         ****END OF INPUT****
================================================================================

                       *****************************
                       * Geometry Optimization Run *
                       *****************************

Geometry optimization settings:
Update method            Update   .... BFGS
Choice of coordinates    CoordSys .... Z-matrix Internals
Initial Hessian          InHess   .... Almoef's Model

Convergence Tolerances:
Energy Change            TolE     ....  5.0000e-06 Eh
Max. Gradient            TolMAXG  ....  3.0000e-04 Eh/bohr
RMS Gradient             TolRMSG  ....  1.0000e-04 Eh/bohr
Max. Displacement        TolMAXD  ....  4.0000e-03 bohr
RMS Displacement         TolRMSD  ....  2.0000e-03 bohr
Strict Convergence                ....  False
------------------------------------------------------------------------------
                        ORCA OPTIMIZATION COORDINATE SETUP
------------------------------------------------------------------------------

The optimization will be done in new redundant internal coordinates
Making redundant internal coordinates   ...  (new redundants) done
Evaluating the initial hessian          ...  (Almloef) done
Evaluating the coordinates              ...  done
Calculating the B-matrix                .... done
Calculating the G-matrix                .... done
Diagonalizing the G-matrix              .... done
The first mode is                       ....   22
The number of degrees of freedom        ....   36

    -----------------------------------------------------------------
                    Redundant Internal Coordinates


    -----------------------------------------------------------------
         Definition                    Initial Value    Approx d2E/dq
    -----------------------------------------------------------------
      1. B(C   1,N   0)                  1.3662         0.610732   
      2. B(C   2,C   1)                  1.3867         0.632419   
      3. B(N   3,C   2)                  1.3583         0.628646   
      4. B(C   4,N   3)                  1.3535         0.639999   
      5. B(C   5,C   4)                  1.3876         0.630275   
      6. B(C   5,N   0)                  1.3537         0.639308   
      7. B(C   6,C   1)                  1.4883         0.435481   
      8. B(N   7,C   6)                  1.3690         0.604533   
      9. B(O   8,C   6)                  1.2240         1.029811   
     10. B(H   9,C   2)                  1.0849         0.366945   
     11. B(H  10,C   4)                  1.0846         0.367281   
     12. B(H  11,C   5)                  1.0847         0.367237   
     13. B(H  12,N   7)                  1.0096         0.433376   
     14. B(H  13,N   7)                  1.0140         0.426324   
     15. A(C   1,N   0,C   5)          114.6769         0.429612   
     16. A(N   0,C   1,C   6)          117.3984         0.403853   
     17. A(N   0,C   1,C   2)          122.6709         0.431596   
     18. A(C   2,C   1,C   6)          119.9307         0.408983   
     19. A(N   3,C   2,H   9)          116.0453         0.352680   
     20. A(C   1,C   2,H   9)          121.8275         0.355228   
     21. A(C   1,C   2,N   3)          122.1272         0.433845   
     22. A(C   2,N   3,C   4)          115.3067         0.431932   
     23. A(N   3,C   4,H  10)          115.9438         0.353806   
     24. A(N   3,C   4,C   5)          122.5194         0.434979   
     25. A(C   5,C   4,H  10)          121.5369         0.355079   
     26. A(N   0,C   5,C   4)          122.6989         0.434895   
     27. A(C   4,C   5,H  11)          121.2222         0.355072   
     28. A(N   0,C   5,H  11)          116.0790         0.353734   
     29. A(N   7,C   6,O   8)          121.9787         0.467546   
     30. A(C   1,C   6,O   8)          122.5253         0.443377   
     31. A(C   1,C   6,N   7)          115.4959         0.403127   
     32. A(H  12,N   7,H  13)          120.4682         0.302612   
     33. A(C   6,N   7,H  13)          119.8269         0.356231   
     34. A(C   6,N   7,H  12)          119.7047         0.357225   
     35. D(C   6,C   1,N   0,C   5)    179.9303         0.027307   
     36. D(C   2,C   1,N   0,C   5)     -0.0028         0.027307   
     37. D(N   3,C   2,C   1,N   0)      0.0209         0.027745   
     38. D(H   9,C   2,C   1,N   0)    179.9791         0.027745   
     39. D(N   3,C   2,C   1,C   6)   -179.9106         0.027745   
     40. D(H   9,C   2,C   1,C   6)      0.0476         0.027745   
     41. D(C   4,N   3,C   2,C   1)     -0.0194         0.029054   
     42. D(C   4,N   3,C   2,H   9)   -179.9799         0.029054   
     43. D(H  10,C   4,N   3,C   2)    179.9926         0.030196   
     44. D(C   5,C   4,N   3,C   2)      0.0019         0.030196   
     45. D(N   0,C   5,C   4,H  10)   -179.9742         0.027545   
     46. D(N   0,C   5,C   4,N   3)      0.0161         0.027545   
     47. D(H  11,C   5,N   0,C   1)    179.9914         0.030126   
     48. D(H  11,C   5,C   4,N   3)   -179.9905         0.027545   
     49. D(C   4,C   5,N   0,C   1)     -0.0149         0.030126   
     50. D(H  11,C   5,C   4,H  10)      0.0192         0.027545   
     51. D(O   8,C   6,C   1,C   2)     -0.3583         0.012947   
     52. D(O   8,C   6,C   1,N   0)    179.7067         0.012947   
     53. D(N   7,C   6,C   1,C   2)    179.6095         0.012947   
     54. D(N   7,C   6,C   1,N   0)     -0.3255         0.012947   
     55. D(H  13,N   7,C   6,O   8)   -179.8512         0.029480   
     56. D(H  13,N   7,C   6,C   1)      0.1807         0.029480   
     57. D(H  12,N   7,C   6,O   8)     -0.0360         0.029480   
     58. D(H  12,N   7,C   6,C   1)    179.9959         0.029480   
    -----------------------------------------------------------------

Number of atoms                         .... 14
Number of degrees of freedom            .... 58

         *************************************************************
         *                GEOMETRY OPTIMIZATION CYCLE   1            *
         *************************************************************
---------------------------------
CARTESIAN COORDINATES (ANGSTROEM)
---------------------------------
  N     -0.230558    0.966322    0.279920
  C      0.272374   -0.251908   -0.079900
  C     -0.536104   -1.347130   -0.344072
  N     -1.890410   -1.281630   -0.262709
  C     -2.390950   -0.075671    0.093612
  C     -1.581000    1.019560    0.358091
  C      1.751490   -0.378010   -0.185895
  N      2.460990    0.760675    0.086314
  O      2.302080   -1.426330   -0.495719
  H     -0.121963   -2.308460   -0.629175
  H     -3.471550   -0.011729    0.161626
  H     -2.004810    1.976690    0.642292
  H      3.469090    0.746619    0.033503
  H      1.971310    1.611010    0.342112

----------------------------
CARTESIAN COORDINATES (A.U.)
----------------------------
  NO LB      ZA    FRAG     MASS         X           Y           Z
   0 N     7.0000    0    14.007   -0.435691    1.826084    0.528972
   1 C     6.0000    0    12.011    0.514712   -0.476037   -0.150989
   2 C     6.0000    0    12.011   -1.013090   -2.545707   -0.650202
   3 N     7.0000    0    14.007   -3.572357   -2.421930   -0.496448
   4 C     6.0000    0    12.011   -4.518241   -0.142997    0.176901
   5 C     6.0000    0    12.011   -2.987657    1.926689    0.676694
   6 C     6.0000    0    12.011    3.309836   -0.714335   -0.351291
   7 N     7.0000    0    14.007    4.650597    1.437467    0.163109
   8 O     8.0000    0    15.999    4.350301   -2.695373   -0.936773
   9 H     1.0000    0     1.008   -0.230477   -4.362357   -1.188968
  10 H     1.0000    0     1.008   -6.560279   -0.022164    0.305429
  11 H     1.0000    0     1.008   -3.788542    3.735403    1.213756
  12 H     1.0000    0     1.008    6.555630    1.410905    0.063312
  13 H     1.0000    0     1.008    3.725236    3.044368    0.646498

--------------------------------
INTERNAL COORDINATES (ANGSTROEM)
--------------------------------
 N      0   0   0     0.000000000000     0.00000000     0.00000000
 C      1   0   0     1.366197435910     0.00000000     0.00000000
 C      2   1   0     1.386699209821   122.67086756     0.00000000
 N      3   2   1     1.358327990364   122.12720238     0.00000000
 C      4   3   2     1.353455802740   115.30674086     0.00000000
 C      1   2   3     1.353749823730   114.67692871     0.00000000
 C      2   1   3     1.488260990111   117.39841455   179.93310900
 N      7   2   1     1.368974583410   115.49594855   359.67449336
 O      7   2   1     1.223975114729   122.52534593   179.70666405
 H      3   2   1     1.084874120527   121.82746938   179.97909784
 H      5   4   3     1.084624735643   115.94375452   179.99264659
 H      6   1   2     1.084657992826   116.07895667   179.99136298
 H      8   7   2     1.009580169914   119.70467095   179.99594832
 H      8   7   2     1.014045774977   119.82690420     0.18074296

---------------------------
INTERNAL COORDINATES (A.U.)
---------------------------
 N      0   0   0     0.000000000000     0.00000000     0.00000000
 C      1   0   0     2.581738998736     0.00000000     0.00000000
 C      2   1   0     2.620481736686   122.67086756     0.00000000
 N      3   2   1     2.566867901827   122.12720238     0.00000000
 C      4   3   2     2.557660801545   115.30674086     0.00000000
 C      1   2   3     2.558216420694   114.67692871     0.00000000
 C      2   1   3     2.812405687108   117.39841455   179.93310900
 N      7   2   1     2.586987046944   115.49594855   359.67449336
 O      7   2   1     2.312977761573   122.52534593   179.70666405
 H      3   2   1     2.050114977575   121.82746938   179.97909784
 H      5   4   3     2.049643708442   115.94375452   179.99264659
 H      6   1   2     2.049706555410   116.07895667   179.99136298
 H      8   7   2     1.907830031376   119.70467095   179.99594832
 H      8   7   2     1.916268801966   119.82690420     0.18074296

---------------------
BASIS SET INFORMATION
---------------------
There are 4 groups of distinct atoms

 Group   1 Type N   : 10s4p1d contracted to 3s2p1d pattern {631/31/1}
 Group   2 Type C   : 10s4p1d contracted to 3s2p1d pattern {631/31/1}
 Group   3 Type O   : 10s4p1d contracted to 3s2p1d pattern {631/31/1}
 Group   4 Type H   : 4s contracted to 2s pattern {31}

Atom   0N    basis set group =>   1
Atom   1C    basis set group =>   2
Atom   2C    basis set group =>   2
Atom   3N    basis set group =>   1
Atom   4C    basis set group =>   2
Atom   5C    basis set group =>   2
Atom   6C    basis set group =>   2
Atom   7N    basis set group =>   1
Atom   8O    basis set group =>   3
Atom   9H    basis set group =>   4
Atom  10H    basis set group =>   4
Atom  11H    basis set group =>   4
Atom  12H    basis set group =>   4
Atom  13H    basis set group =>   4
------------------------------------------------------------------------------
                           ORCA GTO INTEGRAL CALCULATION
------------------------------------------------------------------------------

                         BASIS SET STATISTICS AND STARTUP INFO

 # of primitive gaussian shells          ...  155
 # of primitive gaussian functions       ...  263
 # of contracted shells                  ...   64
 # of contracted basis functions         ...  136
 Highest angular momentum                ...    2
 Maximum contraction depth               ...    6
 Integral package used                   ... LIBINT
 Integral threshhold            Thresh   ...  2.500e-11
 Primitive cut-off              TCut     ...  2.500e-12


------------------------------ INTEGRAL EVALUATION ----------------------------


 * One electron integrals 
 Pre-screening matrix                    ... done
 Shell pair data                         ... done (   0.003 sec)

-------------------------------------------------------------------------------
                                 ORCA SCF
-------------------------------------------------------------------------------

------------
SCF SETTINGS
------------
Hamiltonian:
 Density Functional     Method          .... DFT(GTOs)
 Exchange Functional    Exchange        .... B88
   X-Alpha parameter    XAlpha          ....  0.666667
   Becke's b parameter  XBeta           ....  0.004200
 Correlation Functional Correlation     .... LYP
 LDA part of GGA corr.  LDAOpt          .... VWN-5
 Gradients option       PostSCFGGA      .... off
 Hybrid DFT is turned on
   Fraction HF Exchange ScalHFX         ....  0.200000
   Scaling of DF-GGA-X  ScalDFX         ....  0.720000
   Scaling of DF-GGA-C  ScalDFC         ....  0.810000
   Scaling of DF-LDA-C  ScalLDAC        ....  1.000000
   Perturbative correction              ....  0.000000
   Density functional embedding theory  .... OFF
   NL short-range parameter             ....  4.800000


General Settings:
 Integral files         IntName         .... pirazinamida_opt_b3lyp_6-31g_d
 Hartree-Fock type      HFTyp           .... RHF
 Total Charge           Charge          ....    0
 Multiplicity           Mult            ....    1
 Number of Electrons    NEL             ....   64
 Basis Dimension        Dim             ....  136
 Nuclear Repulsion      ENuc            ....    411.2834169428 Eh

Convergence Acceleration:
 DIIS                   CNVDIIS         .... on
   Start iteration      DIISMaxIt       ....    12
   Startup error        DIISStart       ....  0.200000
   # of expansion vecs  DIISMaxEq       ....     5
   Bias factor          DIISBfac        ....   1.050
   Max. coefficient     DIISMaxC        ....  10.000
 Newton-Raphson         CNVNR           .... off
 SOSCF                  CNVSOSCF        .... on
   Start iteration      SOSCFMaxIt      ....   150
   Startup grad/error   SOSCFStart      ....  0.003300
 Level Shifting         CNVShift        .... on
   Level shift para.    LevelShift      ....    0.2500
   Turn off err/grad.   ShiftErr        ....    0.0010
 Zerner damping         CNVZerner       .... off
 Static damping         CNVDamp         .... on
   Fraction old density DampFac         ....    0.7000
   Max. Damping (<1)    DampMax         ....    0.9800
   Min. Damping (>=0)   DampMin         ....    0.0000
   Turn off err/grad.   DampErr         ....    0.1000
 Fernandez-Rico         CNVRico         .... off

SCF Procedure:
 Maximum # iterations   MaxIter         ....   125
 SCF integral mode      SCFMode         .... Direct
   Integral package                     .... LIBINT
 Reset frequency        DirectResetFreq ....    20
 Integral Threshold     Thresh          ....  2.500e-11 Eh
 Primitive CutOff       TCut            ....  2.500e-12 Eh

Convergence Tolerance:
 Convergence Check Mode ConvCheckMode   .... Total+1el-Energy
 Convergence forced     ConvForced      .... 0
 Energy Change          TolE            ....  1.000e-08 Eh
 1-El. energy change                    ....  1.000e-05 Eh
 Orbital Gradient       TolG            ....  1.000e-05
 Orbital Rotation angle TolX            ....  1.000e-05
 DIIS Error             TolErr          ....  5.000e-07


Diagonalization of the overlap matrix:
Smallest eigenvalue                        ... 1.694e-03
Time for diagonalization                   ...    0.012 sec
Threshold for overlap eigenvalues          ... 1.000e-08
Number of eigenvalues below threshold      ... 0
Time for construction of square roots      ...    0.004 sec
Total time needed                          ...    0.017 sec

-------------------
DFT GRID GENERATION
-------------------

General Integration Accuracy     IntAcc      ...  4.670
Radial Grid Type                 RadialGrid  ... Gauss-Chebyshev
Angular Grid (max. acc.)         AngularGrid ... Lebedev-302
Angular grid pruning method      GridPruning ... 3 (G Style)
Weight generation scheme         WeightScheme... Becke
Basis function cutoff            BFCut       ...    1.0000e-11
Integration weight cutoff        WCut        ...    1.0000e-14
Grids for H and He will be reduced by one unit

# of grid points (after initial pruning)     ...  72878 (   0.1 sec)
# of grid points (after weights+screening)   ...  67419 (   0.5 sec)
nearest neighbour list constructed           ...    0.0 sec
Grid point re-assignment to atoms done       ...    0.0 sec
Grid point division into batches done        ...    0.9 sec
Reduced shell lists constructed in    2.7 sec

Total number of grid points                  ...    67419
Total number of batches                      ...     1062
Average number of points per batch           ...       63
Average number of grid points per atom       ...     4816
Average number of shells per batch           ...    40.66 (63.53%)
Average number of basis functions per batch  ...    88.87 (65.35%)
Average number of large shells per batch     ...    31.02 (76.28%)
Average number of large basis fcns per batch ...    68.21 (76.76%)
Maximum spatial batch extension              ...  19.09, 18.49, 22.31 au
Average spatial batch extension              ...   2.49,  2.65,  2.95 au

Time for grid setup =    3.346 sec

------------------------------
INITIAL GUESS: MODEL POTENTIAL
------------------------------
Loading Hartree-Fock densities                     ... done
Calculating cut-offs                               ... done
Setting up the integral package                    ... done
Initializing the effective Hamiltonian             ... done
Starting the Coulomb interaction                   ... done (   0.3 sec)
Reading the grid                                   ... done
Mapping shells                                     ... done
Starting the XC term evaluation                    ... done (   2.4 sec)
  promolecular density results
     # of electrons  =     63.997678387
     EX              =    -55.070875782
     EC              =     -2.208303141
     EX+EC           =    -57.279178923
Transforming the Hamiltonian                       ... done (   0.0 sec)
Diagonalizing the Hamiltonian                      ... done (   0.0 sec)
Back transforming the eigenvectors                 ... done (   0.0 sec)
Now organizing SCF variables                       ... done
                      ------------------
                      INITIAL GUESS DONE (   6.4 sec)
                      ------------------
--------------
SCF ITERATIONS
--------------
ITER       Energy         Delta-E        Max-DP      RMS-DP      [F,P]     Damp
               ***  Starting incremental Fock matrix formation  ***
  0   -432.5426167348   0.000000000000 0.10335782  0.00330568  0.2762141 0.7000
  1   -432.6534737277  -0.110856992933 0.06094713  0.00213036  0.1070277 0.7000
                               ***Turning on DIIS***
  2   -432.6935902418  -0.040116514079 0.06796524  0.00298121  0.0401941 0.0000
  3   -432.7635793645  -0.069989122734 0.04924156  0.00153117  0.0573098 0.0000
  4   -432.7752364210  -0.011657056549 0.00855550  0.00041543  0.0133399 0.0000
                      *** Initiating the SOSCF procedure ***
                           *** Shutting down DIIS ***
                      *** Re-Reading the Fockian *** 
                      *** Removing any level shift *** 
ITER      Energy       Delta-E        Grad      Rot      Max-DP    RMS-DP
  5   -432.77631071  -0.0010742899  0.000731  0.000731  0.002576  0.000122
               *** Restarting incremental Fock matrix formation ***
  6   -432.77634397  -0.0000332554  0.000699  0.002181  0.003844  0.000096
  7   -432.77631770   0.0000262635  0.001631  0.001566  0.002737  0.000070
  8   -432.77635270  -0.0000350020  0.000101  0.000277  0.000412  0.000015
  9   -432.77635224   0.0000004612  0.000160  0.000220  0.000271  0.000009
 10   -432.77635297  -0.0000007236  0.000025  0.000078  0.000106  0.000003
 11   -432.77635295   0.0000000195  0.000043  0.000056  0.000061  0.000002
 12   -432.77635298  -0.0000000303  0.000004  0.000010  0.000022  0.000001
 13   -432.77635298   0.0000000007  0.000006  0.000006  0.000014  0.000000
                  ***Gradient check signals convergence***
              ***Rediagonalizing the Fockian in SOSCF/NRSCF***

               *****************************************************
               *                     SUCCESS                       *
               *           SCF CONVERGED AFTER  14 CYCLES          *
               *****************************************************

Setting up the final grid:

General Integration Accuracy     IntAcc      ...  5.010
Radial Grid Type                 RadialGrid  ... Gauss-Chebyshev
Angular Grid (max. acc.)         AngularGrid ... Lebedev-434
Angular grid pruning method      GridPruning ... 3 (G Style)
Weight generation scheme         WeightScheme... Becke
Basis function cutoff            BFCut       ...    1.0000e-11
Integration weight cutoff        WCut        ...    1.0000e-14
Grids for H and He will be reduced by one unit

# of grid points (after initial pruning)     ... 129562 (   0.1 sec)
# of grid points (after weights+screening)   ... 119608 (   1.2 sec)
nearest neighbour list constructed           ...    0.0 sec
Grid point re-assignment to atoms done       ...    0.1 sec
Grid point division into batches done        ...    3.3 sec
Reduced shell lists constructed in    5.7 sec

Total number of grid points                  ...   119608
Total number of batches                      ...     1877
Average number of points per batch           ...       63
Average number of grid points per atom       ...     8543
Average number of shells per batch           ...    39.36 (61.50%)
Average number of basis functions per batch  ...    85.97 (63.21%)
Average number of large shells per batch     ...    29.81 (75.74%)
Average number of large basis fcns per batch ...    65.56 (76.27%)
Maximum spatial batch extension              ...  20.36, 21.36, 23.31 au
Average spatial batch extension              ...   2.04,  2.15,  2.35 au

Final grid set up in    7.1 sec
Final integration                            ... done (   4.5 sec)
Change in XC energy                          ...    -0.000004485
Integrated number of electrons               ...    63.999983519
Previous integrated no of electrons          ...    64.000006683

----------------
TOTAL SCF ENERGY
----------------

Total Energy       :         -432.77635746 Eh          -11776.44339 eV

Components:
Nuclear Repulsion  :          411.28341694 Eh           11191.59074 eV
Electronic Energy  :         -844.05977441 Eh          -22968.03413 eV
One Electron Energy:        -1402.56855351 Eh          -38165.83065 eV
Two Electron Energy:          558.50877910 Eh           15197.79652 eV

Virial components:
Potential Energy   :         -862.83370793 Eh          -23478.89884 eV
Kinetic Energy     :          430.05735047 Eh           11702.45545 eV
Virial Ratio       :            2.00632243


DFT components:
N(Alpha)           :       31.999991759578 electrons
N(Beta)            :       31.999991759578 electrons
N(Total)           :       63.999983519157 electrons
E(X)               :      -44.340617089514 Eh       
E(C)               :       -2.603054576620 Eh       
E(XC)              :      -46.943671666134 Eh       
DFET-embed. en.    :        0.000000000000 Eh       

---------------
SCF CONVERGENCE
---------------

  Last Energy change         ...   -1.3329e-09  Tolerance :   1.0000e-08
  Last MAX-Density change    ...    4.6962e-06  Tolerance :   1.0000e-07
  Last RMS-Density change    ...    1.2482e-07  Tolerance :   5.0000e-09
  Last Orbital Gradient      ...    1.1933e-06  Tolerance :   1.0000e-05
  Last Orbital Rotation      ...    1.4585e-06  Tolerance :   1.0000e-05

             **** THE GBW FILE WAS UPDATED (pirazinamida_opt_b3lyp_6-31g_d.gbw) ****
             **** DENSITY FILE WAS UPDATED (pirazinamida_opt_b3lyp_6-31g_d.scfp) ****
             **** ENERGY FILE WAS UPDATED (pirazinamida_opt_b3lyp_6-31g_d.en.tmp) ****
             **** THE GBW FILE WAS UPDATED (pirazinamida_opt_b3lyp_6-31g_d.gbw) ****
             **** DENSITY FILE WAS UPDATED (pirazinamida_opt_b3lyp_6-31g_d.scfp) ****
----------------
ORBITAL ENERGIES
----------------

  NO   OCC          E(Eh)            E(eV) 
   0   2.0000     -19.110079      -520.0117 
   1   2.0000     -14.368764      -390.9939 
   2   2.0000     -14.359532      -390.7427 
   3   2.0000     -14.344751      -390.3405 
   4   2.0000     -10.288241      -279.9573 
   5   2.0000     -10.243580      -278.7420 
   6   2.0000     -10.242001      -278.6990 
   7   2.0000     -10.240179      -278.6494 
   8   2.0000     -10.236012      -278.5360 
   9   2.0000      -1.033665       -28.1275 
  10   2.0000      -0.984629       -26.7931 
  11   2.0000      -0.916936       -24.9511 
  12   2.0000      -0.893361       -24.3096 
  13   2.0000      -0.794318       -21.6145 
  14   2.0000      -0.688272       -18.7288 
  15   2.0000      -0.669731       -18.2243 
  16   2.0000      -0.598927       -16.2976 
  17   2.0000      -0.548956       -14.9378 
  18   2.0000      -0.529585       -14.4107 
  19   2.0000      -0.516289       -14.0489 
  20   2.0000      -0.487246       -13.2586 
  21   2.0000      -0.459281       -12.4977 
  22   2.0000      -0.443583       -12.0705 
  23   2.0000      -0.419735       -11.4216 
  24   2.0000      -0.397287       -10.8107 
  25   2.0000      -0.391802       -10.6615 
  26   2.0000      -0.332911        -9.0590 
  27   2.0000      -0.323730        -8.8091 
  28   2.0000      -0.283558        -7.7160 
  29   2.0000      -0.275276        -7.4906 
  30   2.0000      -0.263685        -7.1752 
  31   2.0000      -0.249300        -6.7838 
  32   0.0000      -0.074738        -2.0337 
  33   0.0000      -0.043838        -1.1929 
  34   0.0000       0.052618         1.4318 
  35   0.0000       0.092224         2.5095 
  36   0.0000       0.113931         3.1002 
  37   0.0000       0.145487         3.9589 
  38   0.0000       0.147348         4.0095 
  39   0.0000       0.151006         4.1091 
  40   0.0000       0.156981         4.2717 
  41   0.0000       0.178800         4.8654 
  42   0.0000       0.249524         6.7899 
  43   0.0000       0.285347         7.7647 
  44   0.0000       0.305065         8.3012 
  45   0.0000       0.319113         8.6835 
  46   0.0000       0.365914         9.9570 
  47   0.0000       0.382062        10.3964 
  48   0.0000       0.419586        11.4175 
  49   0.0000       0.454570        12.3695 
  50   0.0000       0.497312        13.5325 
  51   0.0000       0.509045        13.8518 
  52   0.0000       0.539541        14.6817 
  53   0.0000       0.556349        15.1390 
  54   0.0000       0.591975        16.1085 
  55   0.0000       0.595069        16.1927 
  56   0.0000       0.606811        16.5122 
  57   0.0000       0.614740        16.7279 
  58   0.0000       0.621433        16.9101 
  59   0.0000       0.632510        17.2115 
  60   0.0000       0.655306        17.8318 
  61   0.0000       0.659320        17.9410 
  62   0.0000       0.693441        18.8695 
  63   0.0000       0.699624        19.0377 
  64   0.0000       0.724089        19.7035 
  65   0.0000       0.802975        21.8501 
  66   0.0000       0.810921        22.0663 
  67   0.0000       0.811276        22.0759 
  68   0.0000       0.826581        22.4924 
  69   0.0000       0.835347        22.7310 
  70   0.0000       0.856988        23.3198 
  71   0.0000       0.872412        23.7395 
  72   0.0000       0.876532        23.8516 
  73   0.0000       0.878043        23.8928 
  74   0.0000       0.916186        24.9307 
  75   0.0000       0.976798        26.5800 
  76   0.0000       0.991509        26.9803 
  77   0.0000       1.038256        28.2524 
  78   0.0000       1.041437        28.3389 
  79   0.0000       1.055551        28.7230 
  80   0.0000       1.079471        29.3739 
  81   0.0000       1.100372        29.9426 
  82   0.0000       1.123703        30.5775 
  83   0.0000       1.223889        33.3037 
  84   0.0000       1.252501        34.0823 
  85   0.0000       1.277521        34.7631 
  86   0.0000       1.281404        34.8688 
  87   0.0000       1.388568        37.7849 
  88   0.0000       1.399692        38.0876 
  89   0.0000       1.417321        38.5673 
  90   0.0000       1.457737        39.6670 
  91   0.0000       1.462872        39.8068 
  92   0.0000       1.478841        40.2413 
  93   0.0000       1.483647        40.3721 
  94   0.0000       1.494559        40.6690 
  95   0.0000       1.535884        41.7935 
  96   0.0000       1.639329        44.6084 
  97   0.0000       1.654528        45.0220 
  98   0.0000       1.709879        46.5282 
  99   0.0000       1.767956        48.1085 
 100   0.0000       1.779730        48.4289 
 101   0.0000       1.812665        49.3251 
 102   0.0000       1.846061        50.2339 
 103   0.0000       1.860267        50.6204 
 104   0.0000       1.889613        51.4190 
 105   0.0000       1.894352        51.5479 
 106   0.0000       1.945349        52.9356 
 107   0.0000       1.978056        53.8256 
 108   0.0000       2.059448        56.0404 
 109   0.0000       2.101842        57.1940 
 110   0.0000       2.104146        57.2567 
 111   0.0000       2.150470        58.5173 
 112   0.0000       2.188863        59.5620 
 113   0.0000       2.193171        59.6792 
 114   0.0000       2.216231        60.3067 
 115   0.0000       2.251046        61.2541 
 116   0.0000       2.255320        61.3704 
 117   0.0000       2.290631        62.3312 
 118   0.0000       2.338200        63.6257 
 119   0.0000       2.368839        64.4594 
 120   0.0000       2.460805        66.9619 
 121   0.0000       2.484218        67.5990 
 122   0.0000       2.515854        68.4599 
 123   0.0000       2.581033        70.2335 
 124   0.0000       2.607278        70.9476 
 125   0.0000       2.632098        71.6230 
 126   0.0000       2.667103        72.5756 
 127   0.0000       2.697227        73.3953 
 128   0.0000       2.714818        73.8740 
 129   0.0000       2.750536        74.8459 
 130   0.0000       2.825164        76.8766 
 131   0.0000       2.902428        78.9791 
 132   0.0000       2.985423        81.2375 
 133   0.0000       3.060275        83.2743 
 134   0.0000       3.200416        87.0878 
 135   0.0000       3.390610        92.2632 

                    ********************************
                    * MULLIKEN POPULATION ANALYSIS *
                    ********************************

-----------------------
MULLIKEN ATOMIC CHARGES
-----------------------
   0 N :   -0.402286
   1 C :    0.194788
   2 C :   -0.008636
   3 N :   -0.321900
   4 C :    0.009817
   5 C :    0.018966
   6 C :    0.508165
   7 N :   -0.755261
   8 O :   -0.458021
   9 H :    0.191663
  10 H :    0.161204
  11 H :    0.157340
  12 H :    0.346354
  13 H :    0.357807
Sum of atomic charges:   -0.0000000

--------------------------------
MULLIKEN REDUCED ORBITAL CHARGES
--------------------------------
  0 N s       :     3.716199  s :     3.716199
      pz      :     1.108318  p :     3.648217
      px      :     1.193421
      py      :     1.346478
      dz2     :     0.004613  d :     0.037870
      dxz     :     0.006369
      dyz     :     0.006319
      dx2y2   :     0.013186
      dxy     :     0.007383
  1 C s       :     3.110277  s :     3.110277
      pz      :     0.946964  p :     2.641318
      px      :     0.918501
      py      :     0.775853
      dz2     :     0.004558  d :     0.053617
      dxz     :     0.005420
      dyz     :     0.008329
      dx2y2   :     0.019840
      dxy     :     0.015471
  2 C s       :     3.167510  s :     3.167510
      pz      :     0.915160  p :     2.789573
      px      :     0.864435
      py      :     1.009978
      dz2     :     0.003987  d :     0.051553
      dxz     :     0.008178
      dyz     :     0.003834
      dx2y2   :     0.015888
      dxy     :     0.019666
  3 N s       :     3.683122  s :     3.683122
      pz      :     1.080168  p :     3.600254
      px      :     1.184988
      py      :     1.335098
      dz2     :     0.004845  d :     0.038523
      dxz     :     0.005977
      dyz     :     0.006634
      dx2y2   :     0.013862
      dxy     :     0.007205
  4 C s       :     3.151221  s :     3.151221
      pz      :     0.928897  p :     2.786582
      px      :     0.993679
      py      :     0.864006
      dz2     :     0.004759  d :     0.052380
      dxz     :     0.003644
      dyz     :     0.008044
      dx2y2   :     0.020944
      dxy     :     0.014991
  5 C s       :     3.143601  s :     3.143601
      pz      :     0.949306  p :     2.785466
      px      :     0.851949
      py      :     0.984211
      dz2     :     0.003999  d :     0.051966
      dxz     :     0.008434
      dyz     :     0.003745
      dx2y2   :     0.016316
      dxy     :     0.019472
  6 C s       :     2.973449  s :     2.973449
      pz      :     0.805488  p :     2.406766
      px      :     0.872152
      py      :     0.729127
      dz2     :     0.009232  d :     0.111619
      dxz     :     0.009321
      dyz     :     0.023504
      dx2y2   :     0.037193
      dxy     :     0.032369
  7 N s       :     3.591492  s :     3.591492
      pz      :     1.694827  p :     4.139974
      px      :     1.205971
      py      :     1.239176
      dz2     :     0.003660  d :     0.023796
      dxz     :     0.001185
      dyz     :     0.002984
      dx2y2   :     0.009472
      dxy     :     0.006494
  8 O s       :     3.853450  s :     3.853450
      pz      :     1.430036  p :     4.577380
      px      :     1.701111
      py      :     1.446234
      dz2     :     0.003431  d :     0.027190
      dxz     :     0.002597
      dyz     :     0.007386
      dx2y2   :     0.006734
      dxy     :     0.007043
  9 H s       :     0.808337  s :     0.808337
 10 H s       :     0.838796  s :     0.838796
 11 H s       :     0.842660  s :     0.842660
 12 H s       :     0.653646  s :     0.653646
 13 H s       :     0.642193  s :     0.642193


                     *******************************
                     * LOEWDIN POPULATION ANALYSIS *
                     *******************************

----------------------
LOEWDIN ATOMIC CHARGES
----------------------
   0 N :   -0.109855
   1 C :   -0.014419
   2 C :   -0.052743
   3 N :   -0.096735
   4 C :   -0.077121
   5 C :   -0.082071
   6 C :    0.096045
   7 N :   -0.362135
   8 O :   -0.264752
   9 H :    0.159401
  10 H :    0.142409
  11 H :    0.140481
  12 H :    0.260288
  13 H :    0.261209

-------------------------------
LOEWDIN REDUCED ORBITAL CHARGES
-------------------------------
  0 N s       :     3.265471  s :     3.265471
      pz      :     1.097854  p :     3.761992
      px      :     1.277227
      py      :     1.386912
      dz2     :     0.008742  d :     0.082393
      dxz     :     0.012826
      dyz     :     0.010429
      dx2y2   :     0.030673
      dxy     :     0.019722
  1 C s       :     2.884303  s :     2.884303
      pz      :     0.947251  p :     2.995462
      px      :     1.030568
      py      :     1.017643
      dz2     :     0.010454  d :     0.134654
      dxz     :     0.011095
      dyz     :     0.018563
      dx2y2   :     0.052629
      dxy     :     0.041911
  2 C s       :     2.920660  s :     2.920660
      pz      :     0.920729  p :     3.012213
      px      :     1.007967
      py      :     1.083517
      dz2     :     0.008324  d :     0.119871
      dxz     :     0.016561
      dyz     :     0.006899
      dx2y2   :     0.039761
      dxy     :     0.048326
  3 N s       :     3.269104  s :     3.269104
      pz      :     1.071683  p :     3.744090
      px      :     1.278825
      py      :     1.393582
      dz2     :     0.008980  d :     0.083542
      dxz     :     0.011999
      dyz     :     0.010934
      dx2y2   :     0.032159
      dxy     :     0.019470
  4 C s       :     2.922594  s :     2.922594
      pz      :     0.935711  p :     3.032857
      px      :     1.076210
      py      :     1.020937
      dz2     :     0.009189  d :     0.121670
      dxz     :     0.006719
      dyz     :     0.018027
      dx2y2   :     0.049152
      dxy     :     0.038583
  5 C s       :     2.920703  s :     2.920703
      pz      :     0.950644  p :     3.040046
      px      :     1.014824
      py      :     1.074578
      dz2     :     0.008440  d :     0.121322
      dxz     :     0.017433
      dyz     :     0.006777
      dx2y2   :     0.040298
      dxy     :     0.048374
  6 C s       :     2.839479  s :     2.839479
      pz      :     0.829006  p :     2.798919
      px      :     1.000022
      py      :     0.969890
      dz2     :     0.020831  d :     0.265557
      dxz     :     0.019853
      dyz     :     0.051406
      dx2y2   :     0.093134
      dxy     :     0.080332
  7 N s       :     3.177549  s :     3.177549
      pz      :     1.663821  p :     4.129754
      px      :     1.216144
      py      :     1.249788
      dz2     :     0.005554  d :     0.054832
      dxz     :     0.002661
      dyz     :     0.006361
      dx2y2   :     0.022001
      dxy     :     0.018255
  8 O s       :     3.557513  s :     3.557513
      pz      :     1.428519  p :     4.652478
      px      :     1.713338
      py      :     1.510622
      dz2     :     0.006939  d :     0.054761
      dxz     :     0.004140
      dyz     :     0.012422
      dx2y2   :     0.013954
      dxy     :     0.017306
  9 H s       :     0.840599  s :     0.840599
 10 H s       :     0.857591  s :     0.857591
 11 H s       :     0.859519  s :     0.859519
 12 H s       :     0.739712  s :     0.739712
 13 H s       :     0.738791  s :     0.738791


                      *****************************
                      * MAYER POPULATION ANALYSIS *
                      *****************************

  NA   - Mulliken gross atomic population
  ZA   - Total nuclear charge
  QA   - Mulliken gross atomic charge
  VA   - Mayer's total valence
  BVA  - Mayer's bonded valence
  FA   - Mayer's free valence

  ATOM       NA         ZA         QA         VA         BVA        FA
  0 N      7.4023     7.0000    -0.4023     2.9760     2.9760    -0.0000
  1 C      5.8052     6.0000     0.1948     3.8005     3.8005     0.0000
  2 C      6.0086     6.0000    -0.0086     3.8365     3.8365    -0.0000
  3 N      7.3219     7.0000    -0.3219     2.9981     2.9981    -0.0000
  4 C      5.9902     6.0000     0.0098     3.8880     3.8880    -0.0000
  5 C      5.9810     6.0000     0.0190     3.8823     3.8823    -0.0000
  6 C      5.4918     6.0000     0.5082     4.0001     4.0001    -0.0000
  7 N      7.7553     7.0000    -0.7553     2.8731     2.8731     0.0000
  8 O      8.4580     8.0000    -0.4580     2.1074     2.1074    -0.0000
  9 H      0.8083     1.0000     0.1917     0.9360     0.9360     0.0000
 10 H      0.8388     1.0000     0.1612     0.9316     0.9316     0.0000
 11 H      0.8427     1.0000     0.1573     0.9319     0.9319    -0.0000
 12 H      0.6536     1.0000     0.3464     0.8599     0.8599     0.0000
 13 H      0.6422     1.0000     0.3578     0.8608     0.8608     0.0000

  Mayer bond orders larger than 0.100000
B(  0-N ,  1-C ) :   1.3515 B(  0-N ,  5-C ) :   1.4516 B(  1-C ,  2-C ) :   1.3555 
B(  1-C ,  4-C ) :   0.1015 B(  1-C ,  6-C ) :   0.9585 B(  2-C ,  3-N ) :   1.4095 
B(  2-C ,  9-H ) :   0.9110 B(  3-N ,  4-C ) :   1.4514 B(  4-C ,  5-C ) :   1.3780 
B(  4-C , 10-H ) :   0.9273 B(  5-C , 11-H ) :   0.9267 B(  6-C ,  7-N ) :   1.1266 
B(  6-C ,  8-O ) :   1.8896 B(  7-N , 12-H ) :   0.8284 B(  7-N , 13-H ) :   0.7982 



------------------
HIRSHFELD ANALYSIS
------------------

Total integrated alpha density =     32.000003342
Total integrated beta density  =     32.000003342

  ATOM     CHARGE      SPIN    
   0 N   -0.155682    0.000000
   1 C    0.058646    0.000000
   2 C    0.053683    0.000000
   3 N   -0.162250    0.000000
   4 C    0.042934    0.000000
   5 C    0.038126    0.000000
   6 C    0.177394    0.000000
   7 N   -0.164698    0.000000
   8 O   -0.315830    0.000000
   9 H    0.059634    0.000000
  10 H    0.053836    0.000000
  11 H    0.051520    0.000000
  12 H    0.140964    0.000000
  13 H    0.121717    0.000000

  TOTAL  -0.000007    0.000000

-------
TIMINGS
-------

Total SCF time: 0 days 0 hours 3 min 54 sec 

Total time                  ....     234.398 sec
Sum of individual times     ....     233.755 sec  ( 99.7%)

Fock matrix formation       ....     217.714 sec  ( 92.9%)
  XC integration            ....      45.896 sec  ( 21.1% of F)
    Basis function eval.    ....      17.079 sec  ( 37.2% of XC)
    Density eval.           ....      11.856 sec  ( 25.8% of XC)
    XC-Functional eval.     ....       4.329 sec  (  9.4% of XC)
    XC-Potential eval.      ....      11.498 sec  ( 25.1% of XC)
Diagonalization             ....       0.135 sec  (  0.1%)
Density matrix formation    ....       0.011 sec  (  0.0%)
Population analysis         ....       2.221 sec  (  0.9%)
Initial guess               ....       3.067 sec  (  1.3%)
Orbital Transformation      ....       0.000 sec  (  0.0%)
Orbital Orthonormalization  ....       0.000 sec  (  0.0%)
DIIS solution               ....       0.043 sec  (  0.0%)
SOSCF solution              ....       0.145 sec  (  0.1%)
Grid generation             ....      10.419 sec  (  4.4%)

-------------------------   --------------------
FINAL SINGLE POINT ENERGY      -432.776357463666
-------------------------   --------------------

------------------------------------------------------------------------------
                         ORCA SCF GRADIENT CALCULATION
------------------------------------------------------------------------------

Gradient of the Kohn-Sham DFT energy:
Kohn-Sham wavefunction type      ... RKS
Hartree-Fock exchange scaling    ...    0.200
Number of operators              ...    1
Number of atoms                  ...   14
Basis set dimensions             ...  136
Integral neglect threshold       ... 2.5e-11
Integral primitive cutoff        ... 2.5e-12

Nuclear repulsion gradient       ... done
One Electron Gradient            ... done
Pre-screening matrix             ... done
Starting the two electron gradient:
Two electron gradient done
Exchange-correlation gradient    ... done

------------------
CARTESIAN GRADIENT
------------------

   1   N   :    0.014710289    0.021214970    0.005210157
   2   C   :    0.004899597   -0.025008144   -0.007077534
   3   C   :    0.026225534    0.006309836    0.000517657
   4   N   :   -0.012030111   -0.013630634   -0.003211897
   5   C   :   -0.003471137    0.020956722    0.005937379
   6   C   :   -0.020919449   -0.007929061   -0.001229103
   7   C   :   -0.024064310   -0.007261369   -0.000835975
   8   N   :    0.011785023   -0.002782771   -0.001338264
   9   O   :    0.003592321    0.007967030    0.002021733
  10   H   :   -0.003513293   -0.001233075   -0.000197670
  11   H   :    0.002080898   -0.001569066   -0.000534674
  12   H   :    0.001544331   -0.001785916   -0.000562541
  13   H   :    0.001156799    0.002199502    0.000507145
  14   H   :   -0.001996491    0.002551975    0.000793587

Difference to translation invariance:
           :   -0.0000000000   -0.0000000000   -0.0000000000

Norm of the cartesian gradient     ...    0.0660010612
RMS gradient                       ...    0.0101841848
MAX gradient                       ...    0.0262255335

-------
TIMINGS
-------

Total SCF gradient time            ...      108.446 sec

One electron gradient       ....       0.430 sec  (  0.4%)
Prescreening matrices       ....       0.576 sec  (  0.5%)
Two electron gradient       ....      65.014 sec  ( 60.0%)
XC gradient                 ....      41.889 sec  ( 38.6%)
------------------------------------------------------------------------------
                         ORCA GEOMETRY RELAXATION STEP
------------------------------------------------------------------------------

Reading the OPT-File                    .... done
Getting information on internals        .... done
Copying old internal coords+grads       .... done
Making the new internal coordinates     .... (new redundants).... done
Validating the new internal coordinates .... (new redundants).... done
Calculating the B-matrix                .... done
Calculating the G,G- and P matrices     .... done
Transforming gradient to internals      .... done
Projecting the internal gradient        .... done
Number of atoms                         ....  14
Number of internal coordinates          ....  58
Current Energy                          ....  -432.776357464 Eh
Current gradient norm                   ....     0.066001061 Eh/bohr
Maximum allowed component of the step   ....  0.300
Current trust radius                    ....  0.300
Evaluating the initial hessian          ....  (Almloef) done
Projecting the Hessian                  .... done
Forming the augmented Hessian           .... done
Diagonalizing the augmented Hessian     .... done
Last element of RFO vector              ....  0.997303756
Lowest eigenvalues of augmented Hessian:
 -0.002929215  0.012947686  0.021163975  0.022466391  0.027683571
Length of the computed step             ....  0.073582444
The final length of the internal step   ....  0.073582444
Converting the step to cartesian space:
 Initial RMS(Int)=    0.0096618483
Transforming coordinates:
 Iter   0:  RMS(Cart)=    0.0095627525 RMS(Int)=    1.4287760031
 Iter   1:  RMS(Cart)=    0.0000788124 RMS(Int)=    0.0000481837
 Iter   2:  RMS(Cart)=    0.0000009016 RMS(Int)=    0.0000004543
 Iter   3:  RMS(Cart)=    0.0000000095 RMS(Int)=    0.0000000077
done
Storing new coordinates                 .... done

                                .--------------------.
          ----------------------|Geometry convergence|-------------------------
          Item                value                   Tolerance       Converged
          ---------------------------------------------------------------------
          RMS gradient        0.0053511851            0.0001000000      NO
          MAX gradient        0.0180579095            0.0003000000      NO
          RMS step            0.0096618483            0.0020000000      NO
          MAX step            0.0294833026            0.0040000000      NO
          ........................................................
          Max(Bonds)      0.0156      Max(Angles)    1.36
          Max(Dihed)        0.19      Max(Improp)    0.00
          ---------------------------------------------------------------------

The optimization has not yet converged - more geometry cycles are needed


    ---------------------------------------------------------------------------
                         Redundant Internal Coordinates
                            (Angstroem and degrees)

        Definition                    Value    dE/dq     Step     New-Value
    ----------------------------------------------------------------------------
     1. B(C   1,N   0)                1.3662  0.018058 -0.0156    1.3506   
     2. B(C   2,C   1)                1.3867 -0.007513  0.0062    1.3929   
     3. B(N   3,C   2)                1.3583  0.016031 -0.0134    1.3449   
     4. B(C   4,N   3)                1.3535  0.014034 -0.0115    1.3419   
     5. B(C   5,C   4)                1.3876 -0.006938  0.0058    1.3934   
     6. B(C   5,N   0)                1.3537  0.016539 -0.0136    1.3401   
     7. B(C   6,C   1)                1.4883 -0.009777  0.0118    1.5001   
     8. B(N   7,C   6)                1.3690  0.007303 -0.0064    1.3626   
     9. B(O   8,C   6)                1.2240 -0.005720  0.0029    1.2269   
    10. B(H   9,C   2)                1.0849 -0.000197  0.0003    1.0852   
    11. B(H  10,C   4)                1.0846 -0.002199  0.0031    1.0878   
    12. B(H  11,C   5)                1.0847 -0.002327  0.0033    1.0880   
    13. B(H  12,N   7)                1.0096  0.001098 -0.0013    1.0082   
    14. B(H  13,N   7)                1.0140  0.003304 -0.0041    1.0100   
    15. A(C   1,N   0,C   5)          114.68 -0.005366    0.71    115.38   
    16. A(N   0,C   1,C   6)          117.40 -0.004144    0.57    117.97   
    17. A(N   0,C   1,C   2)          122.67  0.003388   -0.46    122.21   
    18. A(C   2,C   1,C   6)          119.93  0.000756   -0.11    119.82   
    19. A(N   3,C   2,H   9)          116.05 -0.003537    0.57    116.62   
    20. A(C   1,C   2,H   9)          121.83  0.004096   -0.65    121.17   
    21. A(C   1,C   2,N   3)          122.13 -0.000559    0.08    122.21   
    22. A(C   2,N   3,C   4)          115.31 -0.000885    0.13    115.44   
    23. A(N   3,C   4,H  10)          115.94 -0.001778    0.27    116.22   
    24. A(N   3,C   4,C   5)          122.52  0.000486   -0.06    122.46   
    25. A(C   5,C   4,H  10)          121.54  0.001291   -0.22    121.32   
    26. A(N   0,C   5,C   4)          122.70  0.002935   -0.40    122.29   
    27. A(C   4,C   5,H  11)          121.22 -0.000760    0.09    121.31   
    28. A(N   0,C   5,H  11)          116.08 -0.002175    0.32    116.40   
    29. A(N   7,C   6,O   8)          121.98 -0.010813    1.36    123.34   
    30. A(C   1,C   6,O   8)          122.53  0.005170   -0.62    121.91   
    31. A(C   1,C   6,N   7)          115.50  0.005643   -0.74    114.75   
    32. A(H  12,N   7,H  13)          120.47 -0.001161    0.21    120.67   
    33. A(C   6,N   7,H  13)          119.83 -0.002040    0.31    120.14   
    34. A(C   6,N   7,H  12)          119.70  0.003201   -0.52    119.18   
    35. D(C   6,C   1,N   0,C   5)    179.93 -0.000041    0.08    180.01   
    36. D(C   2,C   1,N   0,C   5)     -0.00 -0.000011    0.02      0.01   
    37. D(N   3,C   2,C   1,N   0)      0.02  0.000011   -0.02      0.00   
    38. D(H   9,C   2,C   1,N   0)    179.98 -0.000023    0.04    180.02   
    39. D(N   3,C   2,C   1,C   6)   -179.91  0.000045   -0.09   -180.00   
    40. D(H   9,C   2,C   1,C   6)      0.05  0.000011   -0.03      0.02   
    41. D(C   4,N   3,C   2,C   1)     -0.02 -0.000004    0.01     -0.01   
    42. D(C   4,N   3,C   2,H   9)   -179.98  0.000025   -0.05   -180.03   
    43. D(H  10,C   4,N   3,C   2)    179.99 -0.000003    0.00    180.00   
    44. D(C   5,C   4,N   3,C   2)      0.00 -0.000004    0.00      0.01   
    45. D(N   0,C   5,C   4,H  10)   -179.97  0.000003   -0.01   -179.98   
    46. D(N   0,C   5,C   4,N   3)      0.02  0.000004   -0.01      0.01   
    47. D(H  11,C   5,N   0,C   1)    179.99  0.000003   -0.00    179.99   
    48. D(H  11,C   5,C   4,N   3)   -179.99  0.000004   -0.01   -180.00   
    49. D(C   4,C   5,N   0,C   1)     -0.01  0.000003   -0.00     -0.02   
    50. D(H  11,C   5,C   4,H  10)      0.02  0.000003   -0.01      0.01   
    51. D(O   8,C   6,C   1,C   2)     -0.36 -0.000051    0.18     -0.18   
    52. D(O   8,C   6,C   1,N   0)    179.71 -0.000024    0.11    179.82   
    53. D(N   7,C   6,C   1,C   2)    179.61 -0.000060    0.19    179.80   
    54. D(N   7,C   6,C   1,N   0)     -0.33 -0.000033    0.13     -0.20   
    55. D(H  13,N   7,C   6,O   8)   -179.85 -0.000005    0.01   -179.84   
    56. D(H  13,N   7,C   6,C   1)      0.18 -0.000001   -0.00      0.18   
    57. D(H  12,N   7,C   6,O   8)     -0.04  0.000023   -0.04     -0.07   
    58. D(H  12,N   7,C   6,C   1)    180.00  0.000026   -0.05    179.95   
    ----------------------------------------------------------------------------

         *************************************************************
         *                GEOMETRY OPTIMIZATION CYCLE   2            *
         *************************************************************
---------------------------------
CARTESIAN COORDINATES (ANGSTROEM)
---------------------------------
  N     -0.235546    0.957979    0.275277
  C      0.269411   -0.243450   -0.079280
  C     -0.544705   -1.342635   -0.342513
  N     -1.885526   -1.277588   -0.260459
  C     -2.384137   -0.082689    0.092206
  C     -1.571857    1.018307    0.356170
  C      1.759687   -0.376211   -0.187162
  N      2.455322    0.762635    0.088219
  O      2.295486   -1.434559   -0.500396
  H     -0.120848   -2.300565   -0.625843
  H     -3.467575   -0.015806    0.162401
  H     -1.996310    1.978781    0.640843
  H      3.462151    0.748356    0.036668
  H      1.964437    1.607454    0.343868

----------------------------
CARTESIAN COORDINATES (A.U.)
----------------------------
  NO LB      ZA    FRAG     MASS         X           Y           Z
   0 N     7.0000    0    14.007   -0.445117    1.810318    0.520199
   1 C     6.0000    0    12.011    0.509113   -0.460054   -0.149817
   2 C     6.0000    0    12.011   -1.029344   -2.537213   -0.647255
   3 N     7.0000    0    14.007   -3.563128   -2.414292   -0.492196
   4 C     6.0000    0    12.011   -4.505366   -0.156259    0.174245
   5 C     6.0000    0    12.011   -2.970379    1.924321    0.673063
   6 C     6.0000    0    12.011    3.325326   -0.710936   -0.353684
   7 N     7.0000    0    14.007    4.639886    1.441171    0.166710
   8 O     8.0000    0    15.999    4.337841   -2.710924   -0.945612
   9 H     1.0000    0     1.008   -0.228370   -4.347439   -1.182673
  10 H     1.0000    0     1.008   -6.552768   -0.029869    0.306894
  11 H     1.0000    0     1.008   -3.772480    3.739354    1.211017
  12 H     1.0000    0     1.008    6.542516    1.414187    0.069293
  13 H     1.0000    0     1.008    3.712248    3.037648    0.649817

--------------------------------
INTERNAL COORDINATES (ANGSTROEM)
--------------------------------
 N      0   0   0     0.000000000000     0.00000000     0.00000000
 C      1   0   0     1.350601106233     0.00000000     0.00000000
 C      2   1   0     1.392941119162   122.21174640     0.00000000
 N      3   2   1     1.344903305833   122.20764824     0.00000000
 C      4   3   2     1.341927885234   115.43806250     0.00000000
 C      1   2   3     1.340115837261   115.38538886     0.00000000
 C      2   1   3     1.500061752269   117.97230710   180.00156928
 N      7   2   1     1.362612719487   114.75134417   359.80081275
 O      7   2   1     1.226905816787   121.90854676   179.81694887
 H      3   2   1     1.085155258912   121.17466685   180.02284820
 H      5   4   3     1.087768287093   116.21828949   179.99723272
 H      6   1   2     1.087984333424   116.39490779   179.98722847
 H      8   7   2     1.008248567611   119.18472982   179.94496877
 H      8   7   2     1.009972144275   120.14156379     0.17756541

---------------------------
INTERNAL COORDINATES (A.U.)
---------------------------
 N      0   0   0     0.000000000000     0.00000000     0.00000000
 C      1   0   0     2.552266206951     0.00000000     0.00000000
 C      2   1   0     2.632277235894   122.21174640     0.00000000
 N      3   2   1     2.541498924630   122.20764824     0.00000000
 C      4   3   2     2.535876194565   115.43806250     0.00000000
 C      1   2   3     2.532451920155   115.38538886     0.00000000
 C      2   1   3     2.834705895759   117.97230710   180.00156928
 N      7   2   1     2.574964866428   114.75134417   359.80081275
 O      7   2   1     2.318515985843   121.90854676   179.81694887
 H      3   2   1     2.050646252128   121.17466685   180.02284820
 H      5   4   3     2.055584159771   116.21828949   179.99723272
 H      6   1   2     2.055992428168   116.39490779   179.98722847
 H      8   7   2     1.905313667704   119.18472982   179.94496877
 H      8   7   2     1.908570755569   120.14156379     0.17756541


Diagonalization of the overlap matrix:
Smallest eigenvalue                        ... 1.683e-03
Time for diagonalization                   ...    0.029 sec
Threshold for overlap eigenvalues          ... 1.000e-08
Number of eigenvalues below threshold      ... 0
Time for construction of square roots      ...    0.014 sec
Total time needed                          ...    0.043 sec

-------------------
DFT GRID GENERATION
-------------------

General Integration Accuracy     IntAcc      ...  4.670
Radial Grid Type                 RadialGrid  ... Gauss-Chebyshev
Angular Grid (max. acc.)         AngularGrid ... Lebedev-302
Angular grid pruning method      GridPruning ... 3 (G Style)
Weight generation scheme         WeightScheme... Becke
Basis function cutoff            BFCut       ...    1.0000e-11
Integration weight cutoff        WCut        ...    1.0000e-14
Grids for H and He will be reduced by one unit

# of grid points (after initial pruning)     ...  72878 (   0.2 sec)
# of grid points (after weights+screening)   ...  67406 (   0.7 sec)
nearest neighbour list constructed           ...    0.0 sec
Grid point re-assignment to atoms done       ...    0.0 sec
Grid point division into batches done        ...    1.3 sec
Reduced shell lists constructed in    4.0 sec

Total number of grid points                  ...    67406
Total number of batches                      ...     1060
Average number of points per batch           ...       63
Average number of grid points per atom       ...     4815
Average number of shells per batch           ...    40.61 (63.45%)
Average number of basis functions per batch  ...    88.76 (65.27%)
Average number of large shells per batch     ...    31.04 (76.45%)
Average number of large basis fcns per batch ...    68.29 (76.94%)
Maximum spatial batch extension              ...  18.21, 18.28, 23.65 au
Average spatial batch extension              ...   2.47,  2.63,  2.96 au

Time for grid setup =    4.804 sec

--------------
SCF ITERATIONS
--------------
ITER       Energy         Delta-E        Max-DP      RMS-DP      [F,P]     Damp
               ***  Starting incremental Fock matrix formation  ***
                      *** Initiating the SOSCF procedure ***
                      *** Re-Reading the Fockian *** 
                      *** Removing any level shift *** 
ITER      Energy       Delta-E        Grad      Rot      Max-DP    RMS-DP
  0   -432.77778583 -432.7777858320  0.002903  0.002903  0.010812  0.000363
               *** Restarting incremental Fock matrix formation ***
  1   -432.77827071  -0.0004848818  0.002138  0.004401  0.006454  0.000238
  2   -432.77821989   0.0000508282  0.003266  0.003440  0.004651  0.000121
  3   -432.77835502  -0.0001351348  0.000208  0.000696  0.000975  0.000036
  4   -432.77835318   0.0000018445  0.000396  0.000494  0.000711  0.000021
  5   -432.77835610  -0.0000029242  0.000056  0.000128  0.000257  0.000011
  6   -432.77835601   0.0000000878  0.000082  0.000123  0.000166  0.000006
  7   -432.77835622  -0.0000002126  0.000021  0.000075  0.000073  0.000003
  8   -432.77835621   0.0000000119  0.000028  0.000043  0.000047  0.000002
  9   -432.77835623  -0.0000000206  0.000003  0.000007  0.000013  0.000000
 10   -432.77835623   0.0000000006  0.000004  0.000004  0.000007  0.000000
                  ***Gradient check signals convergence***
              ***Rediagonalizing the Fockian in SOSCF/NRSCF***

               *****************************************************
               *                     SUCCESS                       *
               *           SCF CONVERGED AFTER  11 CYCLES          *
               *****************************************************

Setting up the final grid:

General Integration Accuracy     IntAcc      ...  5.010
Radial Grid Type                 RadialGrid  ... Gauss-Chebyshev
Angular Grid (max. acc.)         AngularGrid ... Lebedev-434
Angular grid pruning method      GridPruning ... 3 (G Style)
Weight generation scheme         WeightScheme... Becke
Basis function cutoff            BFCut       ...    1.0000e-11
Integration weight cutoff        WCut        ...    1.0000e-14
Grids for H and He will be reduced by one unit

# of grid points (after initial pruning)     ... 129562 (   0.1 sec)
# of grid points (after weights+screening)   ... 119591 (   1.1 sec)
nearest neighbour list constructed           ...    0.0 sec
Grid point re-assignment to atoms done       ...    0.1 sec
Grid point division into batches done        ...    3.0 sec
Reduced shell lists constructed in    5.4 sec

Total number of grid points                  ...   119591
Total number of batches                      ...     1876
Average number of points per batch           ...       63
Average number of grid points per atom       ...     8542
Average number of shells per batch           ...    39.43 (61.61%)
Average number of basis functions per batch  ...    86.10 (63.31%)
Average number of large shells per batch     ...    29.85 (75.70%)
Average number of large basis fcns per batch ...    65.60 (76.19%)
Maximum spatial batch extension              ...  20.44, 24.35, 25.79 au
Average spatial batch extension              ...   2.06,  2.15,  2.35 au

Final grid set up in    6.7 sec
Final integration                            ... done (   5.0 sec)
Change in XC energy                          ...    -0.000004904
Integrated number of electrons               ...    63.999983944
Previous integrated no of electrons          ...    64.000008597
Total Energy       :         -432.77836114 Eh          -11776.49791 eV
  Last Energy change         ...   -7.6136e-10  Tolerance :   1.0000e-08
  Last MAX-Density change    ...    9.2509e-07  Tolerance :   1.0000e-07
             **** THE GBW FILE WAS UPDATED (pirazinamida_opt_b3lyp_6-31g_d.gbw) ****
             **** DENSITY FILE WAS UPDATED (pirazinamida_opt_b3lyp_6-31g_d.scfp) ****
             **** ENERGY FILE WAS UPDATED (pirazinamida_opt_b3lyp_6-31g_d.en.tmp) ****
             **** THE GBW FILE WAS UPDATED (pirazinamida_opt_b3lyp_6-31g_d.gbw) ****
             **** DENSITY FILE WAS UPDATED (pirazinamida_opt_b3lyp_6-31g_d.scfp) ****
Total SCF time: 0 days 0 hours 3 min 20 sec 

-------------------------   --------------------
FINAL SINGLE POINT ENERGY      -432.778361138194
-------------------------   --------------------

------------------------------------------------------------------------------
                         ORCA SCF GRADIENT CALCULATION
------------------------------------------------------------------------------

Gradient of the Kohn-Sham DFT energy:
Kohn-Sham wavefunction type      ... RKS
Hartree-Fock exchange scaling    ...    0.200
Number of operators              ...    1
Number of atoms                  ...   14
Basis set dimensions             ...  136
Integral neglect threshold       ... 2.5e-11
Integral primitive cutoff        ... 2.5e-12

Nuclear repulsion gradient       ... done
One Electron Gradient            ... done
Pre-screening matrix             ... done
Starting the two electron gradient:
Two electron gradient done
Exchange-correlation gradient    ... done

------------------
CARTESIAN GRADIENT
------------------

   1   N   :    0.005208896    0.009750460    0.002439096
   2   C   :   -0.000488853   -0.010304684   -0.002805980
   3   C   :    0.010583225    0.005535759    0.000966851
   4   N   :   -0.005476382   -0.005887982   -0.001359864
   5   C   :    0.001898234    0.007890202    0.002093576
   6   C   :   -0.006045086   -0.006453519   -0.001473902
   7   C   :   -0.012009243   -0.000768984    0.000363260
   8   N   :    0.005238585    0.000352219   -0.000161392
   9   O   :    0.002943723    0.001189962    0.000209596
  10   H   :   -0.002925557   -0.000880781   -0.000083663
  11   H   :    0.000221785   -0.001545239   -0.000443773
  12   H   :    0.001136400    0.000244883    0.000014301
  13   H   :   -0.000493928    0.001013344    0.000279358
  14   H   :    0.000208201   -0.000135640   -0.000037464

Difference to translation invariance:
           :    0.0000000000    0.0000000000    0.0000000000

Norm of the cartesian gradient     ...    0.0282940343
RMS gradient                       ...    0.0043658643
MAX gradient                       ...    0.0120092434

-------
TIMINGS
-------

Total SCF gradient time            ...      111.799 sec

One electron gradient       ....       0.400 sec  (  0.4%)
Prescreening matrices       ....       0.477 sec  (  0.4%)
Two electron gradient       ....      63.699 sec  ( 57.0%)
XC gradient                 ....      46.774 sec  ( 41.8%)
------------------------------------------------------------------------------
                         ORCA GEOMETRY RELAXATION STEP
------------------------------------------------------------------------------

Reading the OPT-File                    .... done
Getting information on internals        .... done
Copying old internal coords+grads       .... done
Making the new internal coordinates     .... (new redundants).... done
Validating the new internal coordinates .... (new redundants).... done
Calculating the B-matrix                .... done
Calculating the G,G- and P matrices     .... done
Transforming gradient to internals      .... done
Projecting the internal gradient        .... done
Number of atoms                         ....  14
Number of internal coordinates          ....  58
Current Energy                          ....  -432.778361138 Eh
Current gradient norm                   ....     0.028294034 Eh/bohr
Maximum allowed component of the step   ....  0.300
Current trust radius                    ....  0.300
Updating the Hessian (BFGS)             .... done
Forming the augmented Hessian           .... done
Diagonalizing the augmented Hessian     .... done
Last element of RFO vector              ....  0.998317669
Lowest eigenvalues of augmented Hessian:
 -0.000894038  0.012946535  0.021163966  0.022466795  0.027683926
Length of the computed step             ....  0.058079014
The final length of the internal step   ....  0.058079014
Converting the step to cartesian space:
 Initial RMS(Int)=    0.0076261481
Transforming coordinates:
 Iter   0:  RMS(Cart)=    0.0070822679 RMS(Int)=    1.6499483574
 Iter   1:  RMS(Cart)=    0.0000772273 RMS(Int)=    0.0000429539
 Iter   2:  RMS(Cart)=    0.0000005523 RMS(Int)=    0.0000003359
 Iter   3:  RMS(Cart)=    0.0000000062 RMS(Int)=    0.0000000049
done
Storing new coordinates                 .... done

                                .--------------------.
          ----------------------|Geometry convergence|-------------------------
          Item                value                   Tolerance       Converged
          ---------------------------------------------------------------------
          Energy change      -0.0020036745            0.0000050000      NO
          RMS gradient        0.0020574385            0.0001000000      NO
          MAX gradient        0.0056430674            0.0003000000      NO
          RMS step            0.0076261481            0.0020000000      NO
          MAX step            0.0195489536            0.0040000000      NO
          ........................................................
          Max(Bonds)      0.0093      Max(Angles)    1.12
          Max(Dihed)        0.13      Max(Improp)    0.00
          ---------------------------------------------------------------------

The optimization has not yet converged - more geometry cycles are needed


    ---------------------------------------------------------------------------
                         Redundant Internal Coordinates
                            (Angstroem and degrees)

        Definition                    Value    dE/dq     Step     New-Value
    ----------------------------------------------------------------------------
     1. B(C   1,N   0)                1.3506  0.005643 -0.0092    1.3414   
     2. B(C   2,C   1)                1.3929 -0.003753  0.0055    1.3984   
     3. B(N   3,C   2)                1.3449  0.004253 -0.0069    1.3380   
     4. B(C   4,N   3)                1.3419  0.002942 -0.0049    1.3371   
     5. B(C   5,C   4)                1.3934 -0.003018  0.0046    1.3980   
     6. B(C   5,N   0)                1.3401  0.003650 -0.0061    1.3341   
     7. B(C   6,C   1)                1.5001 -0.004279  0.0093    1.5093   
     8. B(N   7,C   6)                1.3626  0.003573 -0.0055    1.3571   
     9. B(O   8,C   6)                1.2269  0.000205  0.0001    1.2270   
    10. B(H   9,C   2)                1.0852 -0.000343  0.0008    1.0860   
    11. B(H  10,C   4)                1.0878 -0.000345  0.0011    1.0888   
    12. B(H  11,C   5)                1.0880 -0.000224  0.0008    1.0888   
    13. B(H  12,N   7)                1.0082 -0.000522  0.0009    1.0091   
    14. B(H  13,N   7)                1.0100 -0.000224  0.0000    1.0100   
    15. A(C   1,N   0,C   5)          115.39 -0.004383    0.98    116.37   
    16. A(N   0,C   1,C   6)          117.97 -0.002887    0.69    118.66   
    17. A(N   0,C   1,C   2)          122.21  0.002271   -0.53    121.68   
    18. A(C   2,C   1,C   6)          119.82  0.000615   -0.16    119.66   
    19. A(N   3,C   2,H   9)          116.62 -0.003560    0.94    117.56   
    20. A(C   1,C   2,H   9)          121.17  0.002667   -0.75    120.42   
    21. A(C   1,C   2,N   3)          122.21  0.000894   -0.18    122.02   
    22. A(C   2,N   3,C   4)          115.44 -0.002443    0.55    115.98   
    23. A(N   3,C   4,H  10)          116.22 -0.002241    0.56    116.78   
    24. A(N   3,C   4,C   5)          122.46  0.001220   -0.25    122.21   
    25. A(C   5,C   4,H  10)          121.32  0.001020   -0.31    121.01   
    26. A(N   0,C   5,C   4)          122.29  0.002441   -0.56    121.73   
    27. A(C   4,C   5,H  11)          121.31 -0.000048   -0.03    121.28   
    28. A(N   0,C   5,H  11)          116.39 -0.002393    0.59    116.98   
    29. A(N   7,C   6,O   8)          123.34 -0.004995    1.12    124.46   
    30. A(C   1,C   6,O   8)          121.91  0.002368   -0.50    121.41   
    31. A(C   1,C   6,N   7)          114.75  0.002627   -0.62    114.13   
    32. A(H  12,N   7,H  13)          120.67 -0.000731    0.22    120.90   
    33. A(C   6,N   7,H  13)          120.14 -0.000515    0.15    120.29   
    34. A(C   6,N   7,H  12)          119.18  0.001246   -0.37    118.81   
    35. D(C   6,C   1,N   0,C   5)   -179.99  0.000003   -0.01   -179.99   
    36. D(C   2,C   1,N   0,C   5)      0.01  0.000004   -0.01      0.00   
    37. D(N   3,C   2,C   1,N   0)      0.00 -0.000002    0.01      0.01   
    38. D(H   9,C   2,C   1,N   0)   -179.98  0.000010   -0.03   -180.01   
    39. D(N   3,C   2,C   1,C   6)   -180.00 -0.000001   -0.00   -180.00   
    40. D(H   9,C   2,C   1,C   6)      0.02  0.000011   -0.04     -0.01   
    41. D(C   4,N   3,C   2,C   1)     -0.01 -0.000000    0.00     -0.01   
    42. D(C   4,N   3,C   2,H   9)    179.97 -0.000011    0.03    180.00   
    43. D(H  10,C   4,N   3,C   2)    180.00 -0.000004    0.01    180.01   
    44. D(C   5,C   4,N   3,C   2)      0.01  0.000001   -0.00      0.01   
    45. D(N   0,C   5,C   4,H  10)   -179.98  0.000007   -0.02   -180.00   
    46. D(N   0,C   5,C   4,N   3)      0.01  0.000002   -0.01      0.00   
    47. D(H  11,C   5,N   0,C   1)    179.99 -0.000000    0.00    179.99   
    48. D(H  11,C   5,C   4,N   3)   -180.00 -0.000002    0.01   -179.99   
    49. D(C   4,C   5,N   0,C   1)     -0.02 -0.000004    0.01     -0.01   
    50. D(H  11,C   5,C   4,H  10)      0.01  0.000003   -0.01      0.00   
    51. D(O   8,C   6,C   1,C   2)     -0.18 -0.000018    0.12     -0.06   
    52. D(O   8,C   6,C   1,N   0)    179.82 -0.000017    0.11    179.93   
    53. D(N   7,C   6,C   1,C   2)    179.80 -0.000021    0.13    179.93   
    54. D(N   7,C   6,C   1,N   0)     -0.20 -0.000020    0.12     -0.08   
    55. D(H  13,N   7,C   6,O   8)   -179.84  0.000006   -0.01   -179.85   
    56. D(H  13,N   7,C   6,C   1)      0.18  0.000007   -0.02      0.15   
    57. D(H  12,N   7,C   6,O   8)     -0.07  0.000015   -0.04     -0.12   
    58. D(H  12,N   7,C   6,C   1)    179.94  0.000017   -0.05    179.89   
    ----------------------------------------------------------------------------

         *************************************************************
         *                GEOMETRY OPTIMIZATION CYCLE   3            *
         *************************************************************
---------------------------------
CARTESIAN COORDINATES (ANGSTROEM)
---------------------------------
  N     -0.241930    0.950150    0.272258
  C      0.270423   -0.238867   -0.078602
  C     -0.547436   -1.342272   -0.341628
  N     -1.881027   -1.272803   -0.258253
  C     -2.384904   -0.084890    0.091965
  C     -1.571486    1.021017    0.356028
[...]
----------------

  NO   OCC          E(Eh)            E(eV) 
   0   2.0000     -19.111401      -520.0477 
   1   2.0000     -14.363287      -390.8449 
   2   2.0000     -14.354939      -390.6178 
   3   2.0000     -14.348348      -390.4384 
   4   2.0000     -10.289457      -279.9904 
   5   2.0000     -10.240982      -278.6713 
   6   2.0000     -10.239932      -278.6427 
   7   2.0000     -10.238268      -278.5974 
   8   2.0000     -10.233220      -278.4601 
   9   2.0000      -1.033206       -28.1150 
  10   2.0000      -0.990924       -26.9644 
  11   2.0000      -0.923280       -25.1237 
  12   2.0000      -0.900819       -24.5125 
  13   2.0000      -0.791141       -21.5281 
  14   2.0000      -0.685127       -18.6433 
  15   2.0000      -0.668264       -18.1844 
  16   2.0000      -0.601691       -16.3729 
  17   2.0000      -0.553806       -15.0698 
  18   2.0000      -0.531089       -14.4517 
  19   2.0000      -0.516554       -14.0561 
  20   2.0000      -0.487375       -13.2622 
  21   2.0000      -0.455449       -12.3934 
  22   2.0000      -0.445176       -12.1139 
  23   2.0000      -0.421167       -11.4605 
  24   2.0000      -0.399398       -10.8682 
  25   2.0000      -0.393704       -10.7132 
  26   2.0000      -0.337224        -9.1763 
  27   2.0000      -0.321835        -8.7576 
  28   2.0000      -0.280254        -7.6261 
  29   2.0000      -0.272404        -7.4125 
  30   2.0000      -0.267069        -7.2673 
  31   2.0000      -0.245422        -6.6783 
  32   0.0000      -0.067440        -1.8351 
  33   0.0000      -0.042243        -1.1495 
  34   0.0000       0.053519         1.4563 
  35   0.0000       0.091119         2.4795 
  36   0.0000       0.114788         3.1235 
  37   0.0000       0.145268         3.9530 
  38   0.0000       0.149140         4.0583 
  39   0.0000       0.152824         4.1586 
  40   0.0000       0.161295         4.3891 
  41   0.0000       0.187647         5.1061 
  42   0.0000       0.251880         6.8540 
  43   0.0000       0.290294         7.8993 
  44   0.0000       0.303819         8.2673 
  45   0.0000       0.322606         8.7786 
  46   0.0000       0.361144         9.8272 
  47   0.0000       0.385835        10.4991 
  48   0.0000       0.419038        11.4026 
  49   0.0000       0.459705        12.5092 
  50   0.0000       0.498477        13.5642 
  51   0.0000       0.516172        14.0457 
  52   0.0000       0.540072        14.6961 
  53   0.0000       0.556352        15.1391 
  54   0.0000       0.592823        16.1315 
  55   0.0000       0.597223        16.2513 
  56   0.0000       0.611799        16.6479 
  57   0.0000       0.617902        16.8140 
  58   0.0000       0.620930        16.8964 
  59   0.0000       0.638176        17.3656 
  60   0.0000       0.656745        17.8709 
  61   0.0000       0.664432        18.0801 
  62   0.0000       0.692121        18.8336 
  63   0.0000       0.699092        19.0233 
  64   0.0000       0.722900        19.6711 
  65   0.0000       0.800402        21.7800 
  66   0.0000       0.805934        21.9306 
  67   0.0000       0.812931        22.1210 
  68   0.0000       0.821934        22.3660 
  69   0.0000       0.837685        22.7946 
  70   0.0000       0.860220        23.4078 
  71   0.0000       0.870157        23.6782 
  72   0.0000       0.874756        23.8033 
  73   0.0000       0.882349        24.0099 
  74   0.0000       0.919698        25.0263 
  75   0.0000       0.977006        26.5857 
  76   0.0000       0.991670        26.9847 
  77   0.0000       1.039286        28.2804 
  78   0.0000       1.045043        28.4371 
  79   0.0000       1.056476        28.7482 
  80   0.0000       1.081156        29.4197 
  81   0.0000       1.101972        29.9862 
  82   0.0000       1.128399        30.7053 
  83   0.0000       1.226653        33.3789 
  84   0.0000       1.261268        34.3208 
  85   0.0000       1.279919        34.8284 
  86   0.0000       1.284108        34.9424 
  87   0.0000       1.391889        37.8752 
  88   0.0000       1.396487        38.0003 
  89   0.0000       1.418717        38.6053 
  90   0.0000       1.452104        39.5138 
  91   0.0000       1.473173        40.0871 
  92   0.0000       1.474672        40.1279 
  93   0.0000       1.486038        40.4372 
  94   0.0000       1.497315        40.7440 
  95   0.0000       1.540443        41.9176 
  96   0.0000       1.633753        44.4567 
  97   0.0000       1.634663        44.4814 
  98   0.0000       1.716551        46.7097 
  99   0.0000       1.772826        48.2410 
 100   0.0000       1.774432        48.2848 
 101   0.0000       1.812696        49.3260 
 102   0.0000       1.853592        50.4388 
 103   0.0000       1.860958        50.6392 
 104   0.0000       1.886269        51.3280 
 105   0.0000       1.894932        51.5637 
 106   0.0000       1.946569        52.9688 
 107   0.0000       1.997335        54.3503 
 108   0.0000       2.059182        56.0332 
 109   0.0000       2.105470        57.2928 
 110   0.0000       2.109865        57.4124 
 111   0.0000       2.163393        58.8689 
 112   0.0000       2.202258        59.9265 
 113   0.0000       2.206319        60.0370 
 114   0.0000       2.224024        60.5188 
 115   0.0000       2.249303        61.2066 
 116   0.0000       2.261897        61.5494 
 117   0.0000       2.313857        62.9633 
 118   0.0000       2.345310        63.8191 
 119   0.0000       2.364303        64.3360 
 120   0.0000       2.473965        67.3200 
 121   0.0000       2.483662        67.5839 
 122   0.0000       2.524903        68.7061 
 123   0.0000       2.584476        70.3272 
 124   0.0000       2.618780        71.2606 
 125   0.0000       2.634726        71.6945 
 126   0.0000       2.688380        73.1546 
 127   0.0000       2.710569        73.7583 
 128   0.0000       2.727888        74.2296 
 129   0.0000       2.754082        74.9424 
 130   0.0000       2.838780        77.2471 
 131   0.0000       2.908825        79.1531 
 132   0.0000       2.990231        81.3683 
 133   0.0000       3.064859        83.3991 
 134   0.0000       3.186673        86.7138 
 135   0.0000       3.423303        93.1528 

                    ********************************
                    * MULLIKEN POPULATION ANALYSIS *
                    ********************************

-----------------------
MULLIKEN ATOMIC CHARGES
-----------------------
   0 N :   -0.395089
   1 C :    0.183243
   2 C :   -0.008781
   3 N :   -0.313605
   4 C :    0.006562
   5 C :    0.012313
   6 C :    0.514951
   7 N :   -0.750351
   8 O :   -0.459746
   9 H :    0.188860
  10 H :    0.157956
  11 H :    0.155394
  12 H :    0.346476
  13 H :    0.361818
Sum of atomic charges:    0.0000000

--------------------------------
MULLIKEN REDUCED ORBITAL CHARGES
--------------------------------
  0 N s       :     3.687695  s :     3.687695
      pz      :     1.112695  p :     3.668605
      px      :     1.196364
      py      :     1.359547
      dz2     :     0.004592  d :     0.038789
      dxz     :     0.006725
      dyz     :     0.006537
      dx2y2   :     0.013228
      dxy     :     0.007706
  1 C s       :     3.114252  s :     3.114252
      pz      :     0.941746  p :     2.647812
      px      :     0.920336
      py      :     0.785730
      dz2     :     0.004612  d :     0.054693
      dxz     :     0.005469
      dyz     :     0.008439
      dx2y2   :     0.020021
      dxy     :     0.016152
  2 C s       :     3.164461  s :     3.164461
      pz      :     0.912388  p :     2.791461
      px      :     0.866948
      py      :     1.012125
      dz2     :     0.004005  d :     0.052859
      dxz     :     0.008599
      dyz     :     0.003687
      dx2y2   :     0.015611
      dxy     :     0.020957
  3 N s       :     3.661344  s :     3.661344
      pz      :     1.084848  p :     3.612677
      px      :     1.187353
      py      :     1.340476
      dz2     :     0.004821  d :     0.039584
      dxz     :     0.006393
      dyz     :     0.006769
      dx2y2   :     0.014021
      dxy     :     0.007581
  4 C s       :     3.150401  s :     3.150401
      pz      :     0.928122  p :     2.789649
      px      :     0.994016
      py      :     0.867510
      dz2     :     0.004814  d :     0.053389
      dxz     :     0.003745
      dyz     :     0.008174
      dx2y2   :     0.021218
      dxy     :     0.015438
  5 C s       :     3.142894  s :     3.142894
      pz      :     0.950234  p :     2.791675
      px      :     0.858409
      py      :     0.983033
      dz2     :     0.004032  d :     0.053118
      dxz     :     0.008745
      dyz     :     0.003683
      dx2y2   :     0.016481
      dxy     :     0.020176
  6 C s       :     2.970472  s :     2.970472
      pz      :     0.802884  p :     2.402500
      px      :     0.874770
      py      :     0.724845
      dz2     :     0.009424  d :     0.112078
      dxz     :     0.008905
      dyz     :     0.024176
      dx2y2   :     0.037130
      dxy     :     0.032442
  7 N s       :     3.588068  s :     3.588068
      pz      :     1.688643  p :     4.138104
      px      :     1.209166
      py      :     1.240294
      dz2     :     0.003695  d :     0.024179
      dxz     :     0.001217
      dyz     :     0.003080
      dx2y2   :     0.009506
      dxy     :     0.006681
  8 O s       :     3.855736  s :     3.855736
      pz      :     1.434216  p :     4.576871
      px      :     1.712910
      py      :     1.429744
      dz2     :     0.003449  d :     0.027139
      dxz     :     0.002353
      dyz     :     0.007588
      dx2y2   :     0.006849
      dxy     :     0.006899
  9 H s       :     0.811140  s :     0.811140
 10 H s       :     0.842044  s :     0.842044
 11 H s       :     0.844606  s :     0.844606
 12 H s       :     0.653524  s :     0.653524
 13 H s       :     0.638182  s :     0.638182


                     *******************************
                     * LOEWDIN POPULATION ANALYSIS *
                     *******************************

----------------------
LOEWDIN ATOMIC CHARGES
----------------------
   0 N :   -0.105633
   1 C :   -0.018373
   2 C :   -0.055594
   3 N :   -0.092219
   4 C :   -0.077519
   5 C :   -0.085246
   6 C :    0.095415
   7 N :   -0.354293
   8 O :   -0.267078
   9 H :    0.157252
  10 H :    0.140011
  11 H :    0.138982
  12 H :    0.260461
  13 H :    0.263833

-------------------------------
LOEWDIN REDUCED ORBITAL CHARGES
-------------------------------
  0 N s       :     3.237788  s :     3.237788
      pz      :     1.099577  p :     3.780893
      px      :     1.282652
      py      :     1.398664
      dz2     :     0.008938  d :     0.086953
      dxz     :     0.013976
      dyz     :     0.011007
      dx2y2   :     0.031701
      dxy     :     0.021331
  1 C s       :     2.887264  s :     2.887264
      pz      :     0.943489  p :     2.993794
      px      :     1.028377
      py      :     1.021928
      dz2     :     0.010570  d :     0.137315
      dxz     :     0.011043
      dyz     :     0.018963
      dx2y2   :     0.053089
      dxy     :     0.043650
  2 C s       :     2.918828  s :     2.918828
      pz      :     0.917833  p :     3.013314
      px      :     1.014885
      py      :     1.080595
      dz2     :     0.008415  d :     0.123452
      dxz     :     0.017499
      dyz     :     0.006554
      dx2y2   :     0.039154
      dxy     :     0.051830
  3 N s       :     3.247246  s :     3.247246
      pz      :     1.074396  p :     3.757467
      px      :     1.284678
      py      :     1.398393
      dz2     :     0.009161  d :     0.087506
      dxz     :     0.013009
      dyz     :     0.011309
      dx2y2   :     0.033143
      dxy     :     0.020885
  4 C s       :     2.921261  s :     2.921261
      pz      :     0.935078  p :     3.031952
      px      :     1.073845
      py      :     1.023030
      dz2     :     0.009313  d :     0.124305
      dxz     :     0.006882
      dyz     :     0.018339
      dx2y2   :     0.050005
      dxy     :     0.039766
  5 C s       :     2.919073  s :     2.919073
      pz      :     0.951701  p :     3.041700
      px      :     1.018983
      py      :     1.071015
      dz2     :     0.008533  d :     0.124473
      dxz     :     0.018182
      dyz     :     0.006582
      dx2y2   :     0.040515
      dxy     :     0.050661
  6 C s       :     2.840409  s :     2.840409
      pz      :     0.828182  p :     2.797503
      px      :     0.995383
      py      :     0.973937
      dz2     :     0.021277  d :     0.266672
      dxz     :     0.018844
      dyz     :     0.053260
      dx2y2   :     0.093549
      dxy     :     0.079742
  7 N s       :     3.171972  s :     3.171972
      pz      :     1.656148  p :     4.126083
      px      :     1.217462
      py      :     1.252472
      dz2     :     0.005681  d :     0.056238
      dxz     :     0.002733
      dyz     :     0.006586
      dx2y2   :     0.022272
      dxy     :     0.018966
  8 O s       :     3.559355  s :     3.559355
      pz      :     1.432727  p :     4.653186
      px      :     1.722264
      py      :     1.498195
      dz2     :     0.006910  d :     0.054537
      dxz     :     0.003784
      dyz     :     0.012725
      dx2y2   :     0.014310
      dxy     :     0.016807
  9 H s       :     0.842748  s :     0.842748
 10 H s       :     0.859989  s :     0.859989
 11 H s       :     0.861018  s :     0.861018
 12 H s       :     0.739539  s :     0.739539
 13 H s       :     0.736167  s :     0.736167


                      *****************************
                      * MAYER POPULATION ANALYSIS *
                      *****************************

  NA   - Mulliken gross atomic population
  ZA   - Total nuclear charge
  QA   - Mulliken gross atomic charge
  VA   - Mayer's total valence
  BVA  - Mayer's bonded valence
  FA   - Mayer's free valence

  ATOM       NA         ZA         QA         VA         BVA        FA
  0 N      7.3951     7.0000    -0.3951     2.9996     2.9996     0.0000
  1 C      5.8168     6.0000     0.1832     3.8068     3.8068     0.0000
  2 C      6.0088     6.0000    -0.0088     3.8457     3.8457    -0.0000
  3 N      7.3136     7.0000    -0.3136     3.0146     3.0146     0.0000
  4 C      5.9934     6.0000     0.0066     3.8937     3.8937    -0.0000
  5 C      5.9877     6.0000     0.0123     3.8903     3.8903     0.0000
  6 C      5.4850     6.0000     0.5150     3.9927     3.9927     0.0000
  7 N      7.7504     7.0000    -0.7504     2.8801     2.8801     0.0000
  8 O      8.4597     8.0000    -0.4597     2.1064     2.1064     0.0000
  9 H      0.8111     1.0000     0.1889     0.9372     0.9372    -0.0000
 10 H      0.8420     1.0000     0.1580     0.9324     0.9324    -0.0000
 11 H      0.8446     1.0000     0.1554     0.9325     0.9325    -0.0000
 12 H      0.6535     1.0000     0.3465     0.8594     0.8594     0.0000
 13 H      0.6382     1.0000     0.3618     0.8598     0.8598    -0.0000

  Mayer bond orders larger than 0.100000
B(  0-N ,  1-C ) :   1.3738 B(  0-N ,  5-C ) :   1.4597 B(  1-C ,  2-C ) :   1.3433 
B(  1-C ,  4-C ) :   0.1072 B(  1-C ,  6-C ) :   0.9441 B(  2-C ,  3-N ) :   1.4293 
B(  2-C ,  5-C ) :   0.1040 B(  2-C ,  9-H ) :   0.9097 B(  3-N ,  4-C ) :   1.4567 
B(  4-C ,  5-C ) :   1.3745 B(  4-C , 10-H ) :   0.9268 B(  5-C , 11-H ) :   0.9260 
B(  6-C ,  7-N ) :   1.1382 B(  6-C ,  8-O ) :   1.8861 B(  7-N , 12-H ) :   0.8284 
B(  7-N , 13-H ) :   0.7944 


------------------
HIRSHFELD ANALYSIS
------------------

Total integrated alpha density =     32.000003478
Total integrated beta density  =     32.000003478

  ATOM     CHARGE      SPIN    
   0 N   -0.160196    0.000000
   1 C    0.058944    0.000000
   2 C    0.054341    0.000000
   3 N   -0.164538    0.000000
   4 C    0.043980    0.000000
   5 C    0.038521    0.000000
   6 C    0.178047    0.000000
   7 N   -0.159414    0.000000
   8 O   -0.315749    0.000000
   9 H    0.056997    0.000000
  10 H    0.052134    0.000000
  11 H    0.050891    0.000000
  12 H    0.141794    0.000000
  13 H    0.124241    0.000000

  TOTAL  -0.000007    0.000000

-------
TIMINGS
-------

Total SCF time: 0 days 0 hours 1 min 44 sec 

Total time                  ....     104.119 sec
Sum of individual times     ....     103.588 sec  ( 99.5%)

Fock matrix formation       ....      90.520 sec  ( 86.9%)
  XC integration            ....      21.797 sec  ( 24.1% of F)
    Basis function eval.    ....       8.453 sec  ( 38.8% of XC)
    Density eval.           ....       5.556 sec  ( 25.5% of XC)
    XC-Functional eval.     ....       2.070 sec  (  9.5% of XC)
    XC-Potential eval.      ....       5.166 sec  ( 23.7% of XC)
Diagonalization             ....       0.022 sec  (  0.0%)
Density matrix formation    ....       0.005 sec  (  0.0%)
Population analysis         ....       2.113 sec  (  2.0%)
Initial guess               ....       0.015 sec  (  0.0%)
Orbital Transformation      ....       0.000 sec  (  0.0%)
Orbital Orthonormalization  ....       0.011 sec  (  0.0%)
DIIS solution               ....       0.004 sec  (  0.0%)
SOSCF solution              ....       0.079 sec  (  0.1%)
Grid generation             ....      10.829 sec  ( 10.4%)

-------------------------   --------------------
FINAL SINGLE POINT ENERGY      -432.778884848978
-------------------------   --------------------

                                *** OPTIMIZATION RUN DONE ***

                            ***************************************
                            *     ORCA property calculations      *
                            ***************************************

                                    ---------------------
                                    Active property flags
                                    ---------------------
   (+) Dipole Moment


------------------------------------------------------------------------------
                       ORCA ELECTRIC PROPERTIES CALCULATION
------------------------------------------------------------------------------

Dipole Moment Calculation                       ... on
Quadrupole Moment Calculation                   ... off
Polarizability Calculation                      ... off
GBWName                                         ... pirazinamida_opt_b3lyp_6-31g_d.gbw
Electron density file                           ... pirazinamida_opt_b3lyp_6-31g_d.scfp
The origin for moment calculation is the CENTER OF MASS  = ( 0.177191, -0.417933 -0.123361)

-------------
DIPOLE MOMENT
-------------
                                X             Y             Z
Electronic contribution:      0.18813      -1.54264      -0.43285
Nuclear contribution   :     -0.55617       2.93042       0.83206
                        -----------------------------------------
Total Dipole Moment    :     -0.36804       1.38778       0.39921
                        -----------------------------------------
Magnitude (a.u.)       :      1.49022
Magnitude (Debye)      :      3.78784



--------------------
Rotational spectrum 
--------------------
 
Rotational constants in cm-1:     0.131256     0.043065     0.032426 
Rotational constants in MHz :  3934.959415  1291.041496   972.100132 

 Dipole components along the rotational axes: 
x,y,z [a.u.] :    -0.445833     1.421964     0.001233 
x,y,z [Debye]:    -1.133219     3.614346     0.003135 

 

Timings for individual modules:

Sum of individual times         ...     1651.633 sec (=  27.527 min)
GTO integral calculation        ...        5.629 sec (=   0.094 min)   0.3 %
SCF iterations                  ...     1046.101 sec (=  17.435 min)  63.3 %
SCF Gradient evaluation         ...      598.573 sec (=   9.976 min)  36.2 %
Geometry relaxation             ...        1.330 sec (=   0.022 min)   0.1 %
                             ****ORCA TERMINATED NORMALLY****
TOTAL RUN TIME: 0 days 0 hours 27 minutes 33 seconds 87 msec
